<?xml version="1.0"?>
<VTKFile type="ImageData" version="0.1" byte_order="LittleEndian" compressor="vtkZLibDataCompressor">
  <ImageData WholeExtent="0 249 0 249 0 0" Origin="0 0 0" Spacing="4 4 4">
  <Piece Extent="0 249 0 249 0 0">
    <PointData>
      <DataArray type="Float64" Name="density" format="ascii" RangeMin="0.99870566487" RangeMax="1.0448871334">
        1 1 1 1 1 1
        1 1 1 1 1 1
        1 1 1 1 1 1
        1 1 1 1 1 1
        1 1 1 1 1 1
        1 1 1 1 1 1
        1 1 1 1 1 1
        1 1 1 1 1 1
        1 1 1 1 1 1
        1 1 1 1 1 1
        1 1 1 1 1 1
        1 1 1 1 1 1
        1 1 1 1 1 1
        1 1 1 1 1 1
        1 1 1 1 1 1
        1 1 1 1 1 1
        1 1 1 1 1 1
        1 1 1 1 1 1
        1 1 1 1 1 1
        1 1 1 1 1 1
        1 1 1 1 1 1
        1 1 1 1 1 1
        1 1 1 1 1 1
        1 1 1 1 1 1
        1 1 1 1 1 1
        1 1 1 1 1 1
        1 1 1 1 1 1
        1 1 1 1 1 1
        1 1 1 1 1 1
        1 1 1 1 1 1
        1 1 1 1 1 1
        1 1 1 1 1 1
        1 1 1 1 1 1
        1 1 1 1 1 1
        1 1 1 1 1 1
        1 1 1 1 1 1
        1 1 1 1 1 1
        1 1 1 1 1 1
        1 1 1 1 1 1
        1 1 1 1 1 1
        1 1 1 1 1 1
        1 1 1 1 1 1
        1 1 1 1 1 1
        1 1 1 1 1 1
        1 1 1 1 1 1
        1 1 1 1 1 1
        1 1 1 1 1 1
        1 1 1 1 1 1
        1 1 1 1 1 1
        1 1 1 1 1 1
        1 1 1 1 1 1
        1 1 1 1 1 1
        1 1 1 1 1 1
        1 1 1 1 1 1
        1 1 1 1 1 1
        1 1 1 1 1 1
        1 1 1 1 1 1
        1 1 1 1 1 1
        1 1 1 1 1 1
        1 1 1 1 1 1
        1 1 1 1 1 1
        1 1 1 1 1 1
        1 1 1 1 1 1
        1 1 1 1 1 1
        1 1 1 1 1 1
        1 1 1 1 1 1
        1 1 1 1 1 1
        1 1 1 1 1 1
        1 1 1 1 1 1
        1 1 1 1 1 1
        1 1 1 1 1 1
        1 1 1 1 1 1
        1 1 1 1 1 1
        1 1 1 1 1 1
        1 1 1 1 1 1
        1 1 1 1 1 1
        1 1 1 1 1 1
        1 1 1 1 1 1
        1 1 1 1 1 1
        1 1 1 1 1 1
        1 1 1 1 1 1
        1 1 1 1 1 1
        1 1 1 1 1 1
        1 1 1 1 1 1
        1 1 1 1 1 1
        1 1 1 1 1 1
        1 1 1 1 1 1
        1 1 1 1 1 1
        1 1 1 1 1 1
        1 1 1 1 1 1
        1 1 1 1 1 1
        1 1 1 1 1 1
        1 1 1 1 1 1
        1 1.0000000113 1.0000000715 1.0000002604 1.0000006509 1.0000011338
        1.0000009101 1.000000529 1.0000005866 1.000001335 1.0000027007 1.0000038205
        1.000001961 1.000000795 1.0000002228 1.0000000394 1 1
        1.00000002 1.0000001198 1.0000004564 1.000001186 1.000002158 1.0000019257
        1.0000009652 1.0000003398 1.0000000795 1.0000000087 1 1
        1 1 1 1 1 0.9999999992
        0.99999996678 0.9999998412 0.9999995108 0.99999894123 0.99999827777 0.99999908757
        0.99999961324 0.99999988583 0.99999997922 0.99999999999 1 1
        1 1 0.99999999926 0.99999956772 0.99999735941 0.99999040658
        0.99997544985 0.9999530515 0.99994470458 0.99995824005 0.99997954237 0.99999265841
        0.99999819264 0.99999975996 1 1 1 1
        1 1 1 1 1 1
        1 1 1 0.99999985052 0.9999977582 0.99998920954
        0.99996665067 0.99992728443 0.99988960513 0.99991747356 0.99995937246 0.99998595862
        0.9999964651 0.99999736613 0.99999085918 0.99997645793 0.99995492816 0.99995078022
        0.99996853905 0.99998580332 0.99999561807 1.0000002959 1.0000042588 1.0000102658
        1.0000173957 1.0000162377 1.0000085545 1.0000033371 1.0000008991 1.0000001334
        1 1 1 1 1 1
        1 1 1 1.0000000819 1.0000006294 1.0000025907
        1.0000072535 1.0000148558 1.0000193875 1.0000149576 1.0000071545 1.0000025264
        1.0000006015 1.0000000717 1 1 1 1
        1 1 1 1 1 1
        1 1 1 1 1 1
        1 1 1 1 1 1.0000000087
        1.0000002328 1.0000011822 1.0000037924 1.0000084923 1.0000135547 1.0000098349
        1.0000047918 1.0000016417 1.0000003712 1.0000000313 1 1
        1 1 1 1 1 1
        1 1 1 1 1 1
        1 1 1 1 1 1
        1 1 1 1 1 1
        1 1 1 1 1 1
        1 1 1 1 1 1
        1 1 1 1 1 1
        1 1 1 1 1.0000000313 1.0000003825
        1.0000018933 1.0000059775 1.0000134419 1.0000212337 1.0000201231 1.0000113204
        1.0000046351 1.0000013356 1.0000002328 1.0000000087 1 1
        1 1 1 1 1 1
        1.0000001832 1.0000014423 1.0000060753 1.0000175619 1.0000376516 1.000054662
        1.0000583097 1.000047626 1.0000264584 1.0000107659 1.0000031274 1.0000005772
        1.0000002145 1.0000014423 1.0000060254 1.0000168956 1.0000346619 1.0000460172
        1.0000408146 1.0000231756 1.0000098204 1.0000044381 1.0000058962 1.0000119622
        1.0000183899 1.0000144995 1.0000070653 1.0000030522 1.0000039564 1.0000124334
        1.0000325694 1.00006081 1.0000802997 1.0000773911 1.0000529665 1.0000308341
        1.0000300881 1.0000522844 1.0000799453 1.0000863835 1.0000652989 1.0000326297
        1.0000117094 1.0000027555 1.0000003223 1 1.0000005881 1.00000395
        1.0000139192 1.0000329265 1.0000553536 1.0000571786 1.0000360022 1.0000179388
        1.0000134001 1.0000226225 1.0000392314 1.0000434705 1.0000316988 1.0000153667
        1.0000054445 1.0000013012 1.0000001901 1.0000001144 0.99999773448 0.99998662365
        0.999956817 0.99990762595 0.99985573053 0.99990844178 0.99995246885 0.9999830096
        0.99999585798 0.99999930545 0.99999989131 1 1 1
        0.99999999534 0.99999448543 0.9999669941 0.99989780757 0.99978646335 0.99968590833
        0.99970518704 0.99973143582 0.99983778693 0.99993121689 0.99998071715 0.99999793021
        0.99999999324 1 0.99999999896 0.99999968205 0.99999829109 0.99999434095
        0.99998707595 0.999977863 0.99998484819 0.99999266685 0.9999923081 0.9999891872
        0.99999343667 0.9999959758 0.99998036637 0.99991152798 0.99975073054 0.9995237723
        0.99936883922 0.99949613553 0.99972570116 0.9998998198 0.99997651309 0.99997348122
        0.9999087207 0.99978593794 0.99964078152 0.9996282846 0.99969423839 0.99983254295
        0.99993925531 0.99999997542 1.0000447755 1.000090299 1.0001231704 1.0001154
        1.0000735147 1.0000330377 1.0000099531 1.000001612 1.0000000087 1
        1 1 1 1 1 1.0000000717
        1.0000009987 1.0000059171 1.0000221369 1.0000583381 1.0001108547 1.0001506666
        1.000158355 1.000130628 1.0000819743 1.0000452087 1.000035696 1.0000529621
        1.0000725471 1.0000717894 1.0000491532 1.0000226261 1.0000075161 1.0000016167
        1.000000152 1 1 1 1 1
        1 1 1 1 1 1
        1 1 1.0000000507 1.0000008992 1.000006273 1.0000233969
        1.0000592426 1.0001052026 1.0001343884 1.0001381431 1.0001256346 1.000100421
        1.0000667715 1.0000324032 1.0000123582 1.0000050391 1.0000063657 1.0000129413
        1.0000181016 1.0000157411 1.0000120327 1.0000057157 1.0000020794 1.0000005338
        1.0000000916 1 1 1.0000001832 1.0000017606 1.0000078953
        1.00002301 1.0000482812 1.0000672435 1.0000632502 1.0000384063 1.0000165142
        1.0000049316 1.0000008828 1.0000000507 1 1 1
        1 1 1 1 1 1
        1 1 1 1 1 1
        1 1 1 1 1 1
        1 1.00000002 1.0000008743 1.0000066112 1.0000259988 1.0000670536
        1.00012205 1.0001548174 1.0001464368 1.0001009217 1.0000486664 1.0000167242
        1.0000045301 1.0000023982 1.0000022084 1.0000027828 1.0000070002 1.0000169777
        1.0000311762 1.0000364548 1.0000294016 1.0000218397 1.0000175737 1.0000228523
        1.0000554671 1.0001225849 1.0002006059 1.0002548394 1.0002665507 1.0002301811
        1.0001601487 1.0000841214 1.0000317594 1.0000081327 1.0000032331 1.0000135529
        1.0000467415 1.0001081923 1.0001771866 1.0002125254 1.0001998763 1.0001423761
        1.0000759908 1.0000443088 1.0000576207 1.0000981241 1.0001267508 1.0001182919
        1.0000772984 1.0000412446 1.0000431583 1.0000944687 1.0001840738 1.0002610191
        1.000292184 1.0002761518 1.0002334445 1.000193667 1.0002020603 1.0002477129
        1.0002808192 1.0002795361 1.0002385737 1.0001618906 1.0000756649 1.0000236083
        1.0000042896 1.0000004422 1.0000043906 1.0000245863 1.0000713193 1.00013492
        1.0001813426 1.000187472 1.0001540333 1.0001053258 1.0000958876 1.0001387437
        1.0001921666 1.0002149721 1.0001943817 1.0001339562 1.0000646179 1.0000213636
        1.0000018449 0.99999489409 0.99999620451 0.99999694129 1.0000238681 1.0000061658
        0.99985737574 0.99994053382 0.99987559891 0.99991324775 0.99995916421 0.99998613565
        0.99999789383 1 1 1 1.0000000364 0.99998234062
        0.9998997359 0.99976499748 0.99970635904 0.99976575772 1.0000122741 0.99988793605
        0.99982164646 0.99985963977 0.9999465227 0.99998327684 0.99997305763 0.99994962816
        0.99994823266 0.99996833582 0.99996861218 0.99994234077 0.99991471721 0.99994622611
        1.0001204825 1.0002080957 1.0001360864 0.99997031913 0.99992383139 0.99994311014
        0.99992633586 0.9997811166 0.99950836644 0.99926139398 0.99906902007 0.99928627742
        0.9995136259 0.99975258638 0.9998595576 0.99987692282 0.99978929928 0.99969442759
        0.99958403538 0.99962557158 0.99952275829 0.99961395203 0.99981314102 1.0000079035
        1.0001478505 1.0002296321 1.0002608428 1.0002528928 1.0002008778 1.0001190609
        1.0000481601 1.0000168003 1.0000073575 1.0000057957 1.0000039997 1.0000018284
        1.0000006203 1.000000151 1.00000002 1.0000007962 1.0000084341 1.0000389153
        1.0001138384 1.0002308508 1.0003376519 1.00038972 1.0003888289 1.0003621622
        1.0003190208 1.0002667353 1.0002431182 1.0002586905 1.0002753784 1.0002617907
        1.0002071957 1.000122869 1.0000533684 1.0000234476 1.0000257833 1.0000426479
        1.0000522444 1.0000567749 1.0000537628 1.000039728 1.0000205472 1.0000078653
        1.0000022801 1.0000018234 1.0000066409 1.0000194666 1.0000414029 1.0000582986
        1.0000559171 1.0000449128 1.0000649514 1.000139711 1.0002419355 1.0003175105
        1.0003673829 1.0004042474 1.0004060784 1.0003503691 1.0002661931 1.0001724226
        1.0000948535 1.0000700505 1.0000973082 1.0001381994 1.0001622442 1.0001571815
        1.0001314254 1.0000866189 1.0000407329 1.0000140306 1.0000032828 1.0000003705
        1.0000000804 1.0000022808 1.0000154844 1.0000553075 1.0001284764 1.0002061384
        1.0002435674 1.0002314564 1.0001727009 1.0000928005 1.000033898 1.000007711
        1.0000020967 1.0000058434 1.0000164825 1.0000345377 1.0000515952 1.0000563788
        1.0000426916 1.0000216633 1.000007975 1.000002007 1.0000002827 1.0000000087
        1 1 1 1 1 1
        1 1 1 1.0000000717 1.0000004875 1.0000023182
        1.0000120528 1.0000487547 1.0001289716 1.0002395275 1.000323519 1.000353917
        1.0003418281 1.0002872798 1.0001917969 1.00010712 1.0000786431 1.0000822373
        1.0000828528 1.0000780391 1.0000942176 1.0001421372 1.0001884567 1.0002135869
        1.0002121516 1.0001891595 1.0001671431 1.0001785859 1.0002472446 1.0003517433
        1.0004413967 1.0004953366 1.000505233 1.0004710162 1.0004017463 1.0002949463
        1.0001626499 1.0000622852 1.0000269021 1.0000597956 1.0001569557 1.0002761244
        1.0003627149 1.0003979631 1.0003971745 1.0003571112 1.0002860198 1.0002337228
        1.0002475528 1.0002834828 1.0003055438 1.0003079589 1.000277531 1.0002294343
        1.0002392336 1.0003305642 1.0004368029 1.0004978833 1.0005083308 1.0005031031
        1.0005203629 1.0005569846 1.0005720648 1.0005400566 1.0004996411 1.0004692534
        1.000445285 1.0003829573 1.0002502658 1.0001058927 1.000027404 1.0000047534
        1.0000193021 1.0000862065 1.0001938676 1.0002758747 1.0003044206 1.0003159516
        1.0003358922 1.0003469587 1.0003500892 1.0003680123 1.0004020361 1.0004297181
        1.0004237805 1.0003554566 1.0002265632 1.0000972612 1.000005732 0.99997016609
        1.000054919 1.0003626774 1.0009637477 1.0013581006 1.0009942009 1.0010744743
        1.0003447934 0.99999142972 0.99989731708 0.99994763213 0.99999180394 0.9999985398
        0.99999341238 0.99998080545 0.99996166696 0.99991835978 0.99987428081 1.0000085063
        1.0005433155 1.0010087836 1.001741146 1.0013016317 1.0006509759 1.0001249665
        0.99995171421 0.99992280896 0.99983720689 0.99973736446 0.9997329746 0.99981202236
        0.99985056178 0.99987074507 1.0000820881 1.0005668842 1.0013366235 1.0016218926
        1.0012882732 1.0004670664 0.99991922301 0.99981815124 0.99985670595 0.99987359945
        0.99992354543 0.99999938869 0.99978823706 1.0002861359 1.0001794871 0.99990181733
        0.99968089892 0.99981141317 1.0000932229 1.0005548426 1.0006837975 1.0008277652
        1.0002376527 0.99986041772 0.99979169792 1.0000076242 1.0001987396 1.0002397319
        1.0002653463 1.0003054173 1.0003321991 1.0002920716 1.0002051131 1.0001454304
        1.0001286923 1.0001206811 1.0000986925 1.0000650196 1.00003219 1.0000114924
        1.0000029115 1.0000046476 1.0000352416 1.0001282113 1.000285875 1.0004453571
        1.0005347267 1.0005615949 1.0005730234 1.000605079 1.0006452343 1.0006613708
        1.0006301146 1.0005646958 1.0005025903 1.0004606678 1.0004227608 1.0003526602
        1.0002491124 1.0001780429 1.0001846973 1.0002313605 1.0002746153 1.0002894176
        1.0002686496 1.0002220347 1.0001541831 1.0000792012 1.0000306061 1.0000188879
        1.0000451717 1.000107161 1.0001822161 1.0002287572 1.0002397918 1.0002453464
        1.0003057556 1.0004196702 1.0005026466 1.000543885 1.0005953147 1.0006535364
        1.000669061 1.0006141608 1.0005196328 1.0004317619 1.0003617718 1.0003294934
        1.000350558 1.0003885869 1.0004164199 1.0004100769 1.000374462 1.0003011573
        1.0002071908 1.0001165677 1.0000716058 1.0000576619 1.0000527751 1.0000665446
        1.0001165592 1.0002205177 1.0003374677 1.0004040235 1.0004159456 1.0004055741
        1.000369065 1.0002826077 1.0001770379 1.0001162979 1.0001118593 1.0001385775
        1.0001814749 1.0002302162 1.0002591979 1.0002561136 1.0002184135 1.0001502075
        1.0000729303 1.0000249265 1.0000054372 1.0000005982 1 1
        1 1 1 1 1 1.0000000087
        1.0000003139 1.00000285 1.0000130391 1.0000406168 1.0001078362 1.0002343072
        1.0003964834 1.0004996155 1.0005109553 1.0004878773 1.0004863936 1.0005011058
        1.0004796206 1.0004058135 1.0003327764 1.0003066661 1.0003186573 1.0003499701
        1.0003869219 1.0004171378 1.0004406164 1.0004764433 1.0005056002 1.0004929566
        1.0004789349 1.0005387119 1.0006190834 1.0006457386 1.000637425 1.0006228761
        1.0006208135 1.0006371189 1.000638445 1.0005686174 1.0004202983 1.0002374036
        1.0001412927 1.0002016998 1.0003471165 1.0004489476 1.0004657588 1.000462568
        1.0005066829 1.0005865471 1.0006476914 1.0006538082 1.0005965743 1.0005138529
        1.0004649832 1.0004841828 1.0005544375 1.0006227852 1.0006588283 1.0006788912
        1.0006773951 1.0006339448 1.0006055082 1.0006524609 1.0007944232 1.0009366702
        1.0009426989 1.0007836383 1.0006216077 1.0005664378 1.0005801218 1.0005814215
        1.0004863633 1.0002862676 1.0001041675 1.000031099 1.0000744282 1.0002316597
        1.0003774485 1.0003992631 1.0003603928 1.0003903787 1.0005482372 1.0007335012
        1.0007656748 1.0006511657 1.0005623652 1.0005457921 1.0005591466 1.0005508992
        1.0004622511 1.0002879329 1.0000925597 1.0000692184 1.0006151848 1.0018283702
        1.0038162862 1.0047097527 1.0035208826 1.0039554107 1.0019418421 1.0006470509
        0.99996023275 0.99987671082 0.9999415405 0.99995810914 0.99993207353 0.9998543458
        0.99975891991 0.99972374358 1.0001260393 1.0012381308 1.0027783398 1.0032812696
        1.0053084933 1.0038265356 1.0027520199 1.0010968248 1.0001423805 0.99990526283
        0.9999726856 1.0000219551 1.0000080932 0.99989235527 0.99971235739 1.0000242564
        1.0010122592 1.002471153 1.0044613081 1.0051723534 1.0044119546 1.0022802369
        1.0008707806 1.0004701183 1.0005476586 1.0011047733 1.0019683809 1.0022972094
        1.0026060007 1.0029556485 1.0026668287 1.0014941925 1.0003958094 1.0008298636
        1.0018786963 1.0033451377 1.0028386584 1.0033700708 1.0018228961 1.0011245419
        1.0002164714 1.0000248219 1.00005496 0.99985794114 0.99985896464 1.0000943902
        1.0003889838 1.0005605701 1.0005211937 1.0004216137 1.0003975002 1.000392951
        1.0003488148 1.0002875825 1.0002105399 1.0001282832 1.0000674508 1.0000640159
        1.0001550571 1.0003367134 1.0005179841 1.0006100245 1.0006032741 1.0005905729
        1.0006467996 1.0007590999 1.0008989656 1.0010047147 1.0009781201 1.0008143289
        1.0006469027 1.0005761319 1.0006101966 1.0006578906 1.0006343525 1.0005601224
        1.0005075647 1.0005234115 1.0005702906 1.000588507 1.000553192 1.0004832482
        1.0003895843 1.0002614158 1.0001339097 1.0000878854 1.0001507722 1.0002653973
        1.0003549804 1.0004055623 1.0004733111 1.0005925667 1.0007210887 1.0007591449
        1.0007125447 1.0006829972 1.0007173954 1.000766297 1.0007780425 1.0007436536
        1.000701409 1.0007214037 1.000778183 1.000750087 1.0006674529 1.000630301
        1.0006334349 1.0006278809 1.0006093619 1.0005669944 1.0005074358 1.0004242438
        1.0003337379 1.0002854245 1.0002828354 1.0003204059 1.0004239966 1.0005583203
        1.0006021847 1.0005449389 1.0004859784 1.0004986077 1.0005683732 1.0006017606
        1.0005343303 1.0004330765 1.000407744 1.000455716 1.0005114792 1.0005396895
        1.000533127 1.0005031804 1.0004528925 1.0003683141 1.0002360556 1.0001052926
        1.0000295602 1.0000043292 1.0000000706 1 1 1
        1 1 1.000000152 1.000001665 1.0000094723 1.0000377646
        1.0001066599 1.0002144343 1.0003614499 1.0005590334 1.0007191251 1.0007324197
        1.0006148261 1.0005103018 1.0005318928 1.0006778837 1.0008284446 1.0008309255
        1.0006895544 1.0005797438 1.000609236 1.0007182281 1.0007679455 1.0007194967
        1.0006623419 1.0006818309 1.0007324395 1.0007617653 1.0008126651 1.0009183866
        1.00097527 1.0009044877 1.0007509669 1.0006337451 1.0006303955 1.0007149335
        1.0007798189 1.0007751923 1.0007035823 1.0005693261 1.0004879284 1.0005596143
        1.0006597387 1.0006357838 1.0005032044 1.0004377147 1.0005472059 1.0007738478
        1.0009981241 1.0010704276 1.0009268654 1.0006901522 1.0005498952 1.0005840252
        1.0007862812 1.0010084987 1.0010730633 1.0009861839 1.0008486799 1.0006889915
        1.0006050131 1.0007138554 1.0009579702 1.0011559395 1.0011460495 1.0009061356
        1.0006596479 1.0005855869 1.0006383871 1.0007063179 1.0006990832 1.0005499588
        1.0003243543 1.0001831554 1.0002710812 1.0005143445 1.0006306734 1.000525374
        1.0003900644 1.0004492865 1.0007501224 1.0010778135 1.0011315219 1.0009028963
        1.0006541108 1.0005457765 1.0005740837 1.0006733775 1.0007086244 1.0006020479
        1.0004504619 1.0007967429 1.0022046887 1.0047112661 1.0089416021 1.0114890613
        1.0191880179 1.0100030754 1.0043910972 1.0021478263 1.0004269448 0.99971203679
        0.9996736815 0.99977679642 0.99981468579 0.99979565869 0.99993496901 1.000158705
        1.0015967961 1.0042161652 1.00802885 1.0214157098 1.0236953114 1.0182678974
        1.0068933832 1.003445096 1.0012756891 1.0007600801 1.0013547768 1.0017655844
        1.0017409565 1.001319417 1.0007327866 1.0014896021 1.0033427815 1.0052844613
        1.0095210668 1.010872171 1.0096120012 1.0054790334 1.0035431062 1.0033893918
        1.0033920734 1.0045950248 1.0065853679 1.0093531831 1.0226043144 1.0118162729
        1.0082169115 1.0056174477 1.0028173246 1.0040901852 1.0064752394 1.0096947083
        1.0199938883 1.0237501987 1.006953286 1.0036939096 1.0015703711 1.0007998017
        1.0004927461 0.99966811298 0.99925492211 0.99952289077 1.0001734712 1.0007121791
        1.0008135402 1.000699306 1.000650096 1.0006623933 1.0006387563 1.0005849895
        1.0005135516 1.000416061 1.0003232513 1.0003213189 1.0004710059 1.0006782501
        1.000790659 1.0007590397 1.0006286172 1.0005743292 1.0006736508 1.0008563371
        1.0010551006 1.0011878738 1.0011479911 1.0009292597 1.0007068322 1.0006320293
        1.0007342366 1.0009158131 1.001013466 1.000961383 1.0008387804 1.0007713607
        1.0007632395 1.0007642505 1.0007330298 1.000662451 1.0005847479 1.0004864841
        1.0003484005 1.0002724252 1.0003386905 1.0004279015 1.0004496698 1.0004794613
        1.0006394087 1.0008945938 1.0010637614 1.0010137871 1.0008439289 1.000748767
        1.0007639953 1.0007958078 1.0007894909 1.0007672512 1.0008055518 1.0009638649
        1.0011202335 1.0010817726 1.0009022579 1.0007667426 1.0007296231 1.0007207887
        1.0007291569 1.000755334 1.0007980175 1.0007975462 1.0007139386 1.0006269155
        1.0006144333 1.0006828189 1.000814439 1.0009089754 1.0008380809 1.0006200741
        1.0004636651 1.0005191083 1.0007389587 1.0009267882 1.0009372584 1.0008191416
        1.0007487031 1.0007882044 1.0008194964 1.0007857549 1.0007122482 1.0006442514
        1.0005910174 1.0005338229 1.0004230996 1.0002520828 1.0000922795 1.0000171556
        1.0000004373 1 1 1 1 1.0000000087
        1.000001665 1.0000132841 1.0000563928 1.0001643836 1.00033527 1.0004970359
        1.0006623418 1.0008354968 1.0009400829 1.0008922794 1.0006919219 1.0005132906
        1.0005638875 1.0008408441 1.0011057171 1.0011339632 1.0009515469 1.0007755868
        1.0008117513 1.0009668023 1.001017758 1.0009179641 1.0007925974 1.0007732375
        1.0008226507 1.0008986694 1.0010093016 1.0011204966 1.0011651076 1.0010778856
        1.0008638677 1.0006829766 1.0006915397 1.0007984166 1.0008651642 1.0008949075
        1.0009193215 1.0009072936 1.000936206 1.0010087014 1.0010024013 1.000862731
        1.0006145675 1.0004851403 1.0006211034 1.0009235221 1.0011941416 1.0012700411
        1.001099559 1.0008024616 1.0006245043 1.0006726581 1.000929161 1.0012077834
        1.0012779566 1.0011619521 1.0009888111 1.0007946887 1.0006836328 1.0008066545
        1.0010778582 1.0012626629 1.0012382282 1.0010017608 1.0007471694 1.0006549308
        1.0007178767 1.0008152226 1.0008757019 1.0008368122 1.0007037509 1.0005814471
        1.0006464119 1.0008413601 1.0008847335 1.0006945238 1.00050648 1.0005644947
        1.000909032 1.0012741852 1.0013290078 1.0010799365 1.0007538905 1.0005613548
        1.0006005007 1.0007886839 1.0009067659 1.0008968351 1.0010800657 1.0022610998
        1.004832961 1.007650064 1.0211207318 1.0250882486 1.0277155845 1.025137469
        1.0108918165 1.0049351396 1.0018830971 1.0001446727 0.99983425072 1.0001468711
        1.0004470085 1.0007623709 1.0014894168 1.0019214773 1.0047186571 1.0082084693
        1.0132422853 1.0247967592 1.0262662233 1.0237249864 1.0108303875 1.0068314086
        1.0042736575 1.0037148433 1.0050483915 1.0052633732 1.0052810259 1.0052424144
        1.0042304065 1.0054757978 1.0083306122 1.02328907 1.0255810113 1.025824348
        1.0250827584 1.0236950904 1.0084850287 1.0089163021 1.0088610056 1.0098644295
        1.0120797525 1.0203656535 1.0243778507 1.0221688014 1.0138066148 1.0113647384
        1.0072265067 1.0096780651 1.0123974715 1.0163443438 1.0255036114 1.0255918169
        1.0126561182 1.0068999665 1.0041365802 1.0032971092 1.0026618401 1.0010359514
        1.0000137393 0.99980878578 1.0000190592 1.0006095494 1.0008512629 1.0008138947
        1.0007549397 1.0007865866 1.0008112937 1.0007889549 1.0007611218 1.0007508809
        1.0007194767 1.0007230329 1.0008412686 1.0009843498 1.0010172095 1.000913493
        1.0007513249 1.0006993605 1.00082765 1.0010203462 1.0011765094 1.0012560994
        1.0012062097 1.0009995565 1.0007888419 1.0007342091 1.0008699892 1.0010945606
        1.0012037218 1.0011548465 1.0010181493 1.0009039999 1.0008364785 1.0008038677
        1.0007692151 1.0007101222 1.0006865933 1.0006935433 1.0006742658 1.000667613
        1.0006750179 1.0006260897 1.0005058693 1.0004916336 1.0007086983 1.0010267374
        1.001220014 1.0011603672 1.0009741167 1.0008615087 1.0008998542 1.0009566718
        1.0009159998 1.0008534447 1.0009309657 1.0011391676 1.0012915681 1.0012249076
        1.0010174841 1.0008435007 1.000777591 1.0007706945 1.0007965002 1.0008731743
        1.0009721941 1.001027959 1.0009941705 1.0009024404 1.0008575049 1.0009383169
        1.0010635362 1.0011116763 1.0010104056 1.0007357419 1.0005091885 1.000588352
        1.0008975537 1.0011381753 1.0011580639 1.0010449106 1.0009533409 1.0009646036
        1.0009642979 1.0008826678 1.0007525288 1.0006407793 1.0005925825 1.0005871285
        1.0005469901 1.000406129 1.000196083 1.0000466414 1.0000016539 1
        1 1 1 1.0000000989 1.0000082261 1.000052182
        1.0001712451 1.0003694751 1.0005732564 1.00070508 1.0008241313 1.0009498465
        1.0010369685 1.0010270001 1.0008622292 1.0006821247 1.0007492936 1.0010464897
        1.0012724937 1.0012518646 1.0010384314 1.0008519241 1.0008867492 1.0010646991
        1.0011369008 1.001027201 1.0008785414 1.0008431918 1.0008969638 1.0009780087
        1.0010723352 1.0011850666 1.0012653969 1.0012325146 1.0010786121 1.0009642141
        1.0009857308 1.0010234589 1.0009959096 1.0010049136 1.0010526892 1.0011119209
        1.0012183068 1.0012914241 1.0012375744 1.001089582 1.0008644729 1.0007288915
        1.0008406397 1.0010962143 1.0012733112 1.0013043252 1.0011814149 1.0009567744
        1.0008242782 1.0008736285 1.0010695711 1.0012618217 1.0013132634 1.0012418556
        1.0011511591 1.0010556369 1.0009992337 1.0011000473 1.0012862127 1.0013940319
        1.001351965 1.0012102779 1.0010442785 1.0009309641 1.0009138061 1.0009554353
        1.0010214952 1.0010696123 1.0010768923 1.001029595 1.0010214076 1.0010772267
        1.0010613002 1.0009111524 1.0007514691 1.0007909682 1.00107728 1.0013732648
        1.0014095286 1.0012356257 1.0009762917 1.0007913103 1.0008056076 1.0009565179
        1.0010348552 1.0011114087 1.0018942589 1.0044165755 1.0089287236 1.02113508
        1.0274114732 1.0302103616 1.0308912468 1.0278892458 1.0213233453 1.0094609241
        1.0054317997 1.0025622829 1.0018581077 1.0024283337 1.0033224008 1.0040074397
        1.0050915896 1.0044551091 1.0096456492 1.012878285 1.0181374265 1.0280528592
        1.029609619 1.0276854861 1.0149687742 1.0111662475 1.0093219729 1.00881535
        1.012377119 1.0226405082 1.0232801958 1.0138840726 1.0095976561 1.0106412771
        1.019732529 1.0292245335 1.0312575072 1.0318174514 1.0310957185 1.0299630257
        1.0247293721 1.0251300566 1.0227744173 1.0173759296 1.0173966186 1.0267878072
        1.0286647039 1.0282776877 1.0209541861 1.0240337452 1.0264996077 1.0241731546
        1.0197653821 1.0283655218 1.0310027648 1.0294185736 1.0160204477 1.0100877517
        1.008265699 1.0080561066 1.007943577 1.0044455279 1.0034321191 1.0020613119
        1.0008617634 1.0006570362 1.0007635469 1.0007933384 1.0007838204 1.0008215551
        1.0008591319 1.0008450296 1.000879683 1.0009774292 1.0010258671 1.0010320155
        1.0010707514 1.0011240975 1.0011382871 1.0010826442 1.001028248 1.0010754851
        1.0012085255 1.0013082069 1.0013357063 1.0013504711 1.0013248869 1.0012076605
        1.001058405 1.0010095054 1.0010917115 1.001218061 1.0012571974 1.0011947096
        1.0010892847 1.0009945298 1.0009259893 1.0008714247 1.0008036419 1.0007431035
        1.0007766685 1.0008738673 1.0010067853 1.0011274942 1.0010891502 1.0008861809
        1.0006472106 1.0005674219 1.0007571873 1.0010856597 1.0012950698 1.0012700081
        1.0011601495 1.0011298355 1.0012464825 1.0013545985 1.0012720614 1.0011323429
        1.0011557431 1.0012991188 1.0013798084 1.0012861286 1.0010883702 1.0009644811
        1.000967207 1.0009716955 1.0009645896 1.0010118754 1.0010719793 1.0011079227
        1.0010957463 1.0010204703 1.0009619152 1.0010189888 1.0011262066 1.001177038
        1.0011545481 1.0009796461 1.0007903813 1.0008551142 1.0011040987 1.0012575793
        1.0012154163 1.0010825613 1.0009876542 1.0009696366 1.0009513664 1.0008617525
        1.000691714 1.0005406777 1.0005083351 1.0005613496 1.0005957825 1.0005129666
        1.00030228 1.0000932351 1.0000044067 1 1 1
        1 1.0000004428 1.0000257936 1.0001303407 1.0003206739 1.0005246633
        1.0006769363 1.0007509065 1.0008283871 1.0009557466 1.0010932629 1.0011890981
        1.0011822236 1.001098813 1.001129243 1.0012832782 1.001374966 1.0013044089
        1.0010901867 1.0009082048 1.0009623686 1.0011676624 1.0012629216 1.001173839
        1.0010427162 1.0010376624 1.0011043293 1.0011288417 1.001159972 1.0012633055
        1.0013764454 1.0014135296 1.0013915408 1.0014172893 1.0014670606 1.001383866
        1.0012156985 1.0011359174 1.001140296 1.0011921028 1.0012826933 1.0013281871
        1.0013028538 1.0012457861 1.0011665963 1.0011259526 1.0012171991 1.0013279424
        1.0013539118 1.0013425947 1.001300733 1.001235189 1.0011935906 1.0012240506
        1.0012897369 1.0013140689 1.001310173 1.0013227936 1.0013722177 1.0014257628
        1.0014729976 1.0015212973 1.0015697932 1.0015801418 1.0015392203 1.0014989186
        1.0014836169 1.0013819694 1.0012182541 1.0011186191 1.0011282476 1.0012134099
        1.0012876922 1.0012592538 1.0011994106 1.0011712651 1.0011456462 1.0011080515
        1.001085531 1.0011423538 1.0012976035 1.0014390885 1.0014619718 1.0014169753
        1.0013475697 1.0012610764 1.0011946256 1.0011792841 1.0011157351 1.0012180537
        1.0024975123 1.005677886 1.0113059645 1.0251164257 1.0302117322 1.0327963359
        1.0329213667 1.0308889398 1.0282662018 1.013603098 1.0106973664 1.0071065733
        1.0058915895 1.00743406 1.0091321468 1.0097964671 1.0145973083 1.0248480222
        1.0219048832 1.018080826 1.0287868935 1.032237119 1.033250263 1.0325260354
        1.0300848822 1.0237995164 1.0229890703 1.0175080085 1.0273443061 1.0292469636
        1.0297582912 1.029564757 1.0288730164 1.0290397319 1.034186124 1.033895656
        1.0353637317 1.0356596037 1.0351775315 1.0345240446 1.0362359874 1.0327725388
        1.0307746014 1.0303859957 1.0322364591 1.0325228304 1.0318704021 1.0320705491
        1.0296704629 1.0317837346 1.0317796199 1.0308026967 1.0314664638 1.0348255234